! Sonnet Data File
! From: em Version : 18.56
! From Project: testfile
! Data is De-embedded 
! Data File Written: 07/22/2026 17:35:59
! ->  Created by pysonnet 0.0.4
!< HDATE 07/22/2026 17:35:23
!< MDATE 07/22/2026 17:35:23
# GHZ S RI R 50.00000
1.000000000000000 -0.134959602359 -0.134405007473 0.6980406465269 -0.690254953289 0.6980406465267 -0.690254953289 -0.132888606460 -0.136452944003
1.050000000000000 -0.144830478847 -0.133536777548 0.6704217124193 -0.715342753071 0.6704217124193 -0.715342753071 -0.142641388571 -0.135874355178
1.100000000000000 -0.154525857045 -0.131862460567 0.6420020047981 -0.739295785890 0.6420020047981 -0.739295785890 -0.152227159308 -0.134509571919
1.150000000000000 -0.163981626161 -0.129401799582 0.6128302801471 -0.762102414679 0.6128302801471 -0.762102414679 -0.161584036431 -0.132379071435
1.200000000000000 -0.173136461044 -0.126179399288 0.5829536728023 -0.783753412666 0.5829536728023 -0.783753412666 -0.170653005876 -0.129507773989
1.250000000000000 -0.181932027551 -0.122224276531 0.5524174549882 -0.804241654950 0.5524174549882 -0.804241654950 -0.179378050333 -0.125924642633
1.300000000000000 -0.190313140931 -0.117569462984 0.5212648686739 -0.823561765550 0.5212648686739 -0.823561765550 -0.187706253173 -0.121662336855
1.350000000000000 -0.198227893572 -0.112251650616 0.4895370302241 -0.841709742314 0.4895370302241 -0.841709742314 -0.195587889841 -0.116756907759
1.400000000000000 -0.205627762357 -0.106310871359 0.4572729040907 -0.858682577369 0.4572729040907 -0.858682577369 -0.202976513576 -0.111247523927
1.450000000000000 -0.212467702042 -0.099790203840 0.4245093393260 -0.874477886497 0.4245093393260 -0.874477886497 -0.209829038826 -0.105176219165
1.500000000000000 -0.218706228723 -0.092735501605 0.3912811616768 -0.889093557135 0.3912811616768 -0.889093557135 -0.216105823671 -0.098587655435
1.550000000000000 -0.224305496167 -0.085195138510 0.3576213139038 -0.902527421851 0.3576213139038 -0.902527421851 -0.221770751419 -0.091528896052
1.600000000000000 -0.229231367082 -0.077219767852 0.3235610373490 -0.914776962015 0.3235610373490 -0.914776962015 -0.226791311144 -0.084049185628
1.650000000000000 -0.233453481025 -0.068862092426 0.2891300883790 -0.925839044823 0.2891300883790 -0.925839044823 -0.231138676845 -0.076199734278
1.700000000000000 -0.236945320397 -0.060176643002 0.2543569839926 -0.935709695820 0.2543569839926 -0.935709695820 -0.234787785004 -0.068033504187
1.750000000000000 -0.239684275814 -0.051219562822 0.2192692714975 -0.944383908339 0.2192692714975 -0.944383908339 -0.237717410516 -0.059604997009
1.800000000000000 -0.241651711880 -0.042048395757 0.1838938176846 -0.951855490872 0.1838938176846 -0.951855490872 -0.239910241061 -0.050970040658
1.850000000000000 -0.242833034172 -0.032721875648 0.1482571133397 -0.958116953123 0.1482571133397 -0.958116953123 -0.241352950048 -0.042185574042
1.900000000000000 -0.243217757883 -0.023299714286 0.1123855892156 -0.963159431348 0.1123855892156 -0.963159431348 -0.242036268204 -0.033309428115
1.950000000000000 -0.242799578219 -0.013842385361 0.0763059397651 -0.966972653521 0.0763059397651 -0.966972653521 -0.241955053709 -0.024400101528
2.000000000000000 -0.241576442172 -4.410901665e-3 0.0400454510010 -0.969544944807 0.0400454510010 -0.969544944807 -0.241108360495 -0.015516528930
2.050000000000000 -0.239550620818 0.0049334172050 0.0036323288242 -0.970863273762 0.0036323288242 -0.970863273762 -0.239499503995 -6.717839922e-3
2.100000000000000 -0.236728780743 0.0141291893287 -0.032903975941 -0.970913339611 -0.032903975941 -0.970913339611 -0.237136123152 0.0019368934350
2.150000000000000 -0.233122052647 0.0231152296981 -0.069532449733 -0.969679700803 -0.069532449733 -0.969679700803 -0.234030237031 0.0103889225940
2.200000000000000 -0.228746094603 0.0318308265343 -0.106220209801 -0.967145944857 -0.106220209801 -0.967145944857 -0.230198293839 0.0185801038807
2.250000000000000 -0.223621146860 0.0402160366982 -0.142932213495 -0.963294899230 -0.142932213495 -0.963294899230 -0.225661209606 0.0264531969030
2.300000000000000 -0.217772074554 0.0482120017641 -0.179630987941 -0.958108882601 -0.179630987941 -0.958108882601 -0.220444393261 0.0339521812998
2.350000000000000 -0.211228394156 0.0557612857775 -0.216276384957 -0.951569995460 -0.216276384957 -0.951569995460 -0.214577754320 0.0410225926351
2.400000000000000 -0.204024279045 0.0628082350529 -0.252825366309 -0.943660448395 -0.252825366309 -0.943660448395 -0.208095688974 0.0476118776315
2.450000000000000 -0.196198539237 0.0692993595933 -0.289231824502 -0.934362925778 -0.289231824502 -0.934362925778 -0.201037039984 0.0536697682135
2.500000000000000 -0.187794570045 0.0751837348341 -0.325446444412 -0.923660981813 -0.325446444412 -0.923660981813 -0.193445025577 0.0591486729936
2.550000000000000 -0.178860264320 0.0804134214448 -0.361416610965 -0.911539465106 -0.361416610965 -0.911539465106 -0.185367132378 0.0640040839138
2.600000000000000 -0.169447882995 0.0849438998802 -0.397086367907 -0.897984966983 -0.397086367907 -0.897984966983 -0.176854967500 0.0681949947513
2.650000000000000 -0.159613878844 0.0887345152825 -0.432396432346 -0.882986287901 -0.432396432346 -0.882986287901 -0.167964065126 0.0716843271591
2.700000000000000 -0.149418668853 0.0917489272336 -0.467284269214 -0.866534915290 -0.467284269214 -0.866534915290 -0.158753643347 0.0744393588487
2.750000000000000 -0.138926351209 0.0939555577699 -0.501684229069 -0.848625505292 -0.501684229069 -0.848625505292 -0.149286307689 0.0764321474947
2.800000000000000 -0.128204363818 0.0953280300548 -0.535527751698 -0.829256359969 -0.535527751698 -0.829256359969 -0.139627698610 0.0776399429719
2.850000000000000 -0.117323082371 0.0958455891957 -0.568743636873 -0.808429890817 -0.568743636873 -0.808429890817 -0.129846081346 0.0780455796869
2.900000000000000 -0.106355357295 0.0954934959485 -0.601258382227 -0.786153058824 -0.601258382227 -0.786153058824 -0.120011877807 0.0776378400788
2.950000000000000 -0.095375990465 0.0942633835372 -0.632996586728 -0.762437780930 -0.632996586728 -0.762437780930 -0.110197141666 0.0764117799120
3.000000000000000 -0.084461154119 0.0921535674119 -0.663881416538 -0.737301292691 -0.663881416538 -0.737301292691 -0.100474979418 0.0743690056022
3.050000000000000 -0.073687756585 0.0891692982775 -0.693835128380 -0.710766456804 -0.693835128380 -0.710766456804 -0.090918922044 0.0715178944949
3.100000000000000 -0.063132760539 0.0853229481565 -0.722779643523 -0.682862008329 -0.722779643523 -0.682862008329 -0.081602253392 0.0678737482548
3.150000000000000 -0.052872462270 0.0806341211810 -0.750637164038 -0.653622727397 -0.750637164038 -0.653622727397 -0.072597303517 0.0634588717862
3.200000000000000 -0.042981741355 0.0751296808118 -0.777330821003 -0.623089532243 -0.777330821003 -0.623089532243 -0.063974716571 0.0583025698828
3.250000000000000 -0.033533292371 0.0688436877240 -0.802785343153 -0.591309486191 -0.802785343153 -0.591309486191 -0.055802704460 0.0524410565048
3.300000000000000 -0.024596850882 0.0618172430545 -0.826927732918 -0.558335714994 -0.826927732918 -0.558335714994 -0.048146298607 0.0459172719132
3.350000000000000 -0.016238427710 0.0540982353044 -0.849687936253 -0.524227232046 -0.849687936253 -0.524227232046 -0.041066613145 0.0387806065604
3.400000000000000 -8.519565470e-3 0.0457409902932 -0.870999491914 -0.489048672145 -0.870999491914 -0.489048672145 -0.034620133274 0.0310865316059
3.450000000000000 -1.496631824e-3 0.0368058265940 -0.890800145901 -0.452869936537 -0.890800145901 -0.452869936537 -0.028858042629 0.0228961389271
3.500000000000000 0.0047798365122 0.0273585211751 -0.909032417200 -0.415765754567 -0.909032417200 -0.415765754567 -0.023825603096 0.0142755956893
3.550000000000000 0.0102657257536 0.0174696924128 -0.925644101855 -0.377815169655 -0.925644101855 -0.377815169655 -0.019561599645 0.0052955208693
3.600000000000000 0.0149238607723 0.0072141090685 -0.940588703553 -0.339100959026 -0.940588703553 -0.339100959026 -0.016097861763 -3.969707449e-3
3.650000000000000 0.0187244349158 -3.330060679e-3 -0.953825781445 -0.299709000980 -0.953825781445 -0.299709000980 -0.013458870247 -0.013442700262
3.700000000000000 0.0216453455587 -0.014082049770 -0.965321207334 -0.259727601421 -0.965321207334 -0.259727601421 -0.011661457373 -0.023043850678
3.750000000000000 0.0236724285422 -0.024959328819 -0.975047326417 -0.219246793756 -0.975047326417 -0.219246793756 -0.010714606101 -0.032692158621
3.800000000000000 0.0247995889142 -0.035878461609 -0.982983019452 -0.178357629198 -0.982983019452 -0.178357629198 -0.010619350579 -0.042306070580
3.850000000000000 0.0250288269356 -0.046755965251 -0.989113666233 -0.137151472392 -0.989113666233 -0.137151472392 -0.011368778337 -0.051804320562
3.900000000000000 0.0243701610656 -0.057509160158 -0.993431013013 -0.095719317569 -0.993431013013 -0.095719317569 -0.012948131972 -0.061106757988
3.950000000000000 0.0228414520430 -0.068056995781 -0.995932949024 -0.054151139680 -0.995932949024 -0.054151139680 -0.015335005875 -0.070135149090
4.000000000000000 0.0204681343477 -0.078320839204 -0.996623199502 -0.012535293715 -0.996623199502 -0.012535293715 -0.018499631433 -0.078813939611
4.050000000000000 0.0172828631803 -0.088225215277 -0.995510944593 0.0290420261817 -0.995510944593 0.0290420261817 -0.022405242487 -0.087070968188
4.100000000000001 0.0133250865764 -0.097698488766 -0.992610375139 0.0704972580724 -0.992610375139 0.0704972580724 -0.027008511390 -0.094838121628
4.150000000000000 0.0086405533274 -0.106673481060 -0.987940197501 0.1117498663956 -0.987940197501 0.1117498663956 -0.032260045144 -0.102051925281
4.200000000000000 0.0032807680118 -0.115088016045 -0.981523100421 0.1527226534959 -0.981523100421 0.1527226534959 -0.038104930530 -0.108654063809
4.250000000000000 -2.697595365e-3 -0.122885391890 -0.973385197249 0.1933419852588 -0.973385197249 0.1933419852588 -0.044483317062 -0.114591829676
4.300000000000001 -9.233309831e-3 -0.130014777518 -0.963555456880 0.2335379297590 -0.963555456880 0.2335379297590 -0.051331026906 -0.119818498659
4.350000000000001 -0.016261231280 -0.136431534377 -0.952065136382 0.2732443098640 -0.952065136382 0.2732443098640 -0.058580181520 -0.124293633457
4.400000000000000 -0.023712943843 -0.142097465795 -0.938947227614 0.3123986725854 -0.938947227614 0.3123986725854 -0.066159835724 -0.127983318017
4.450000000000000 -0.031517406084 -0.146980997549 -0.924235929280 0.3509421796116 -0.924235929280 0.3509421796116 -0.073996611087 -0.130860326491
4.500000000000000 -0.039601590609 -0.151057294355 -0.907966154728 0.3888194248479 -0.907966154728 0.3888194248479 -0.082015321828 -0.132904231685
4.550000000000001 -0.047891111129 -0.154308317728 -0.890173084641 0.4259781859419 -0.890173084641 0.4259781859419 -0.090139587880 -0.134101458538
4.600000000000001 -0.056310832442 -0.156722831108 -0.870891772474 0.4623691176755 -0.870891772474 0.4623691176755 -0.098292431241 -0.134445288483
4.650000000000000 -0.064785460300 -0.158296358236 -0.850156809199 0.4979453957835 -0.850156809199 0.4979453957835 -0.106396853147 -0.133935820595
4.700000000000000 -0.073240109474 -0.159031100607 -0.828002052650 0.5326623202356 -0.828002052650 0.5326623202356 -0.114376390982 -0.132579895154
4.750000000000000 -0.081600849614 -0.158935819404 -0.804460425508 0.5664768873206 -0.804460425508 0.5664768873206 -0.122155655086 -0.130390984747
4.800000000000001 -0.089795229591 -0.158025686615 -0.779563784830 0.5993473400370 -0.779563784830 0.5993473400370 -0.129660846646 -0.127389057293
4.850000000000001 -0.097752781927 -0.156322109209 -0.753342864891 0.6312327063532 -0.753342864891 0.6312327063532 -0.136820258754 -0.123600414448
4.900000000000000 -0.105405509608 -0.153852529219 -0.725827294109 0.6620923348781 -0.725827294109 0.6620923348781 -0.143564763345 -0.119057507758
4.950000000000000 -0.112688358018 -0.150650201455 -0.697045685824 0.6918854374187 -0.697045685824 0.6918854374187 -0.149828287125 -0.113798733771
5.000000000000000 -0.119539674930 -0.146753949370 -0.667025801791 0.7205706477986 -0.667025801791 0.7205706477986 -0.155548279710 -0.107868208037
5.050000000000001 -0.125901661444 -0.142207898408 -0.635794786325 0.7481056061920 -0.635794786325 0.7481056061920 -0.160666177106 -0.101315516674
5.100000000000001 -0.131720816387 -0.137061184901 -0.603379468108 0.7744465780917 -0.603379468108 0.7744465780917 -0.165127863206 -0.094195442905
5.150000000000000 -0.136948376131 -0.131367637493 -0.569806725734 0.7995481168676 -0.569806725734 0.7995481168676 -0.168884131311 -0.086567664799
5.200000000000000 -0.141540750893 -0.125185426989 -0.535103912044 0.8233627786684 -0.535103912044 0.8233627786684 -0.171891146720 -0.078496419343
5.250000000000000 -0.145459957463 -0.118576679628 -0.499299331230 0.8458408981497 -0.499299331230 0.8458408981497 -0.174110910206 -0.070050127083
5.300000000000001 -0.148674046973 -0.111607048138 -0.462422761510 0.8669304331325 -0.462422761510 0.8669304331325 -0.175511720718 -0.061300970834
5.350000000000001 -0.151157524714 -0.104345234427 -0.424506014938 0.8865768857768 -0.424506014938 0.8865768857768 -0.176068633945 -0.052324421558
5.400000000000000 -0.152891757303 -0.096862457679 -0.385583524566 0.9047233071315 -0.385583524566 0.9047233071315 -0.175763911513 -0.043198704340
5.450000000000000 -0.153865360586 -0.089231861817 -0.345692947792 0.9213103909541 -0.345692947792 0.9213103909541 -0.174587453522 -0.034004197717
5.500000000000000 -0.154074583153 -0.081527867936 -0.304875796935 0.9362766510662 -0.304875796935 0.9362766510662 -0.172537229612 -0.024822769792
5.550000000000001 -0.153523609869 -0.073825427729 -0.263178018345 0.9495587230745 -0.263178018345 0.9495587230745 -0.169619628426 -0.015737010512
5.600000000000001 -0.152224805842 -0.066199211782 -0.220650535945 0.9610917558174 -0.220650535945 0.9610917558174 -0.165849747212 -6.829391585e-3
5.650000000000000 -0.150198942898 -0.058722747035 -0.177349801064 0.9708098771734 -0.177349801064 0.9708098771734 -0.161251664661 0.0018186351270
5.700000000000000 -0.147475325340 -0.051467467886 -0.133338264050 0.9786467653501 -0.133338264050 0.9786467653501 -0.155858608793 0.0101276324358
5.750000000000000 -0.144091819160 -0.044501699215 -0.088684771175 0.9845363052857 -0.088684771175 0.9845363052857 -0.149713023793 0.0180212485750
5.800000000000001 -0.140094767873 -0.037889578932 -0.043464870516 0.9884133195143 -0.043464870516 0.9884133195143 -0.142866517459 0.0254273557263
5.850000000000001 -0.135538778291 -0.031689931219 0.0022389882803 0.9902143592628 0.0022389882803 0.9902143592628 -0.135379671140 0.0322792443946
5.900000000000000 -0.130486360516 -0.025955105146 0.0483373735223 0.9898785379318 0.0483373735223 0.9898785379318 -0.127321695023 0.0385168577635
5.950000000000000 -0.125007408047 -0.020729796967 0.0947339204805 0.9873483856517 0.0947339204805 0.9873483856517 -0.118769913480 0.0440880462781
6.000000000000000 -0.119178506421 -0.016049877677 0.1413255163104 0.9825707005128 0.1413255163104 0.9825707005128 -0.109809067923 0.0489498190604
6.050000000000001 -0.113082061998 -0.011941250322 0.1880026225357 0.9754973695844 0.1880026225357 0.9754973695844 -0.100530428159 0.0530695655937
6.100000000000001 -0.106805246387 -8.418763807e-3 0.2346497311700 0.9660861312145 0.2346497311700 0.9660861312145 -0.091030707566 0.0564262186384
6.150000000000000 -0.100438756423 -5.485211368e-3 0.2811459442612 0.9543012495803 0.2811459442612 0.9543012495803 -0.081410782280 0.0590113277658
6.200000000000000 -0.094075394227 -3.130442352e-3 0.3273656598678 0.9401140732632 0.3273656598678 0.9401140732632 -0.071774219798 0.0608300123872
6.250000000000000 -0.087808476599 -1.330615394e-3 0.3731793404752 0.9235034519273 0.3731793404752 0.9235034519273 -0.062225627699 0.0619017638132
6.300000000000001 -0.081730087325 -4.761943326e-5 0.4184543329476 0.9044559890965 0.4184543329476 0.9044559890965 -0.052868838141 0.0622610677121
6.350000000000001 -0.075929189752 7.7131351610e-4 0.4630557026388 0.8829661146186 0.4630557026388 0.8829661146186 -0.043804948134 0.0619578212688
6.400000000000000 -0.070489619754 0.0011937832457 0.5068470385963 0.8590359676193 0.5068470385963 0.8590359676193 -0.035130238922 0.0610575231626
6.450000000000000 -0.065487980818 0.0013021670057 0.5496911822332 0.8326750895057 0.5496911822332 0.8326750895057 -0.026933999900 0.0596412188629
6.500000000000000 -0.060991463164 0.0011933227621 0.5914508287171 0.8038999366973 0.5914508287171 0.8038999366973 -0.019296282979 0.0578051882570
6.550000000000001 -0.057055607541 9.7804008810e-4 0.6319889488764 0.7727332340511 0.6319889488764 0.7727332340511 -0.012285612310 0.0556603667276
6.600000000000001 -0.053722031665 7.8023079201e-4 0.6711689798753 0.7392032021852 0.6711689798753 0.7392032021852 -5.956671649e-3 0.0533314938871
6.650000000000000 -0.051016133529 7.3585172510e-4 0.7088547353979 0.7033427049055 0.7088547353979 0.7033427049055 -3.479877508e-4 0.0509559856093
6.700000000000000 -0.048944781310 9.9155016977e-4 0.7449099907711 0.6651883765591 0.7449099907711 0.6651883765591 0.0045203765915 0.0486825241108
6.750000000000000 -0.047493995298 0.0017030172058 0.7791977055201 0.6247798033001 0.7791977055201 0.6247798033001 0.0086491111401 0.0466693570340
6.800000000000001 -0.046626623830 0.0030330259758 0.8115788555631 0.5821588469694 0.8115788555631 0.5821588469694 0.0120619238938 0.0450822892488
6.850000000000001 -0.046280014176 0.0051491194789 0.8419108600832 0.5373692155998 0.8419108600832 0.5373692155998 0.0148077814352 0.0440923400661
6.900000000000000 -0.046363682084 0.0082208962975 0.8700456047971 0.4904564005048 0.8700456047971 0.4904564005048 0.0169631201475 0.0438730236251
6.950000000000000 -0.046756992239 0.0124168227584 0.8958270849963 0.4414681163977 0.8958270849963 0.4414681163977 0.0186340177267 0.0445971916010
7.000000000000000 -0.047306878668 0.0179004772127 0.9190887199407 0.3904553975872 0.9190887199407 0.3904553975872 0.0199583000072 0.0464333558125
7.050000000000001 -0.047825661679 0.0248261079505 0.9396504270333 0.3374745190026 0.9396504270333 0.3374745190026 0.0211075335083 0.0495413852484
7.100000000000001 -0.048089059493 0.0333333634321 0.9573155922631 0.2825899235973 0.9573155922631 0.2825899235973 0.0222888164026 0.0540674500055
7.150000000000000 -0.047834551379 0.0435410362903 0.9718681355227 0.2258783440774 0.9718681355227 0.2258783440774 0.0237462268327 0.0601380676380
7.200000000000000 -0.046760327692 0.0555396574114 0.9830699482909 0.1674343013041 0.9830699482909 0.1674343013041 0.0257617149949 0.0678531014810
7.250000000000001 -0.044525162428 0.0693827925964 0.9906590785394 0.1073771357790 0.9906590785394 0.1073771357790 0.0286551326119 0.0772775742700
7.300000000000001 -0.040749664712 0.0850769444371 0.9943491529248 0.0458596707044 0.9943491529248 0.0458596707044 0.0327829811694 0.0884322055468
7.350000000000001 -0.035019501433 0.1025700621869 0.9938306542059 -0.016921499882 0.9938306542059 -0.016921499882 0.0385353338681 0.1012826728732
7.400000000000000 -0.026891320329 0.1217388312606 0.9887747997967 -0.080714274230 0.9887747997967 -0.080714274230 0.0463302581193 0.1157277521840
7.450000000000000 -0.015902216397 0.1423751703784 0.9788408717894 -0.145198286255 0.9788408717894 -0.145198286255 0.0566049587278 0.1315867292578
7.500000000000001 -1.583634166e-3 0.1641727219033 0.9636878913558 -0.209971906845 0.9636878913558 -0.209971906845 0.0698028139134 0.1485868050668
7.550000000000001 0.0165194732983 0.1867145790339 0.9429914561328 -0.274540225063 0.9429914561328 -0.274540225063 0.0863555403847 0.1663516424056
7.600000000000001 0.0388236735387 0.2094640243745 0.9164662982880 -0.338305744544 0.9164662982880 -0.338305744544 0.1066599673031 0.1843926941666
7.650000000000000 0.0656762539004 0.2317605871850 0.8838945991892 -0.400564045001 0.8838945991892 -0.400564045001 0.1310493940667 0.2021054496180
7.700000000000000 0.0973194397776 0.2528241339192 0.8451592572826 -0.460507052191 0.8451592572826 -0.460507052191 0.1597603084289 0.2187731161673
7.750000000000001 0.1338516807663 0.2717698020758 0.8002801460757 -0.517236652822 0.8002801460757 -0.517236652822 0.1928963528124 0.2335803475868
7.800000000000001 0.1751894850535 0.2876361474575 0.7494500159491 -0.569790968415 0.7494500159491 -0.569790968415 0.2303927549988 0.2456392279792
7.850000000000001 0.2210346986301 0.2994276979331 0.6930653241560 -0.617184469680 0.6930653241560 -0.617184469680 0.2719857566843 0.2540286358433
7.900000000000000 0.2708531268588 0.3061711103770 0.6317463067822 -0.658461190387 0.6317463067822 -0.658461190387 0.3171925092188 0.2578462664830
7.950000000000000 0.3238704900359 0.3069814636174 0.5663405081531 -0.692757732568 0.5663405081531 -0.692757732568 0.3653070039408 0.2562701224922
8.000000000000000 0.3790904594797 0.3011323548470 0.4979051743918 -0.719369990827 0.4979051743918 -0.719369990827 0.4154164621976 0.2486236212050
8.050000000000001 0.4353367787213 0.2881211518260 0.4276665518597 -0.737815286098 0.4276665518597 -0.737815286098 0.4664400781562 0.2344363109529
8.100000000000000 0.4913175476458 0.2677198388842 0.3569579093539 -0.747880708043 0.3569579093539 -0.747880708043 0.5171883716006 0.2134913244091
8.150000000000000 0.5457054668627 0.2400030075489 0.2871422264709 -0.749649525227 0.2871422264709 -0.749649525227 0.5664374356494 0.1858517111881
8.200000000000001 0.5972243645815 0.2053477526064 0.2195288433182 -0.743500603131 0.2195288433182 -0.743500603131 0.6130091300753 0.1518607529301
8.250000000000000 0.6447307411885 0.1644049001900 0.1552949052883 -0.730080257002 0.1552949052883 -0.730080257002 0.6558467805312 0.1121156823436
8.300000000000001 0.6872799229457 0.1180459178641 0.0954216235284 -0.710250706878 0.0954216235284 -0.710250706878 0.6940767172526 0.0674187947945
8.350000000000000 0.7241694871326 0.0672937146330 0.0406524242989 -0.685023021803 0.0406524242989 -0.685023021803 0.7270488172505 0.0187135297812
8.400000000000000 0.7549569805358 0.0132473884479 -8.524132001e-3 -0.655484229421 -8.524132001e-3 -0.655484229421 0.7543532472721 -0.032985167780
8.450000000000001 0.7794533650331 -0.042989420931 -0.051868028894 -0.622727890998 -0.051868028894 -0.622727890998 0.7758146958302 -0.086657248667
8.500000000000000 0.7976970175158 -0.100369108701 -0.089362706731 -0.587795337463 -0.089362706731 -0.587795337463 0.7914685371660 -0.141333783478
8.550000000000001 0.8099149130166 -0.157945261041 -0.121177588568 -0.551631766901 -0.121177588568 -0.551631766902 0.8015250528636 -0.196138949752
8.600000000000001 0.8164776545488 -0.214901041676 -0.147624588754 -0.515058567712 -0.147624588754 -0.515058567712 0.8063278591254 -0.250316462601
8.650000000000000 0.8178547793015 -0.270562398597 -0.169114968733 -0.478760197168 -0.169114968733 -0.478760197168 0.8063125886073 -0.303242027814
8.700000000000001 0.8145739841677 -0.324398808352 -0.186119901237 -0.443283080090 -0.186119901237 -0.443283080090 0.8019691259397 -0.354424222068
8.750000000000000 0.8071865353246 -0.376014593065 -0.199136872617 -0.409043740764 -0.199136872617 -0.409043740764 0.7938094937489 -0.403496524257
8.800000000000001 0.7962403881511 -0.425134544392 -0.208663559243 -0.376342414128 -0.208663559243 -0.376342414128 0.7823428943581 -0.450204085518
8.850000000000001 0.7822606698296 -0.471586633183 -0.215178791165 -0.345379504662 -0.215178791165 -0.345379504662 0.7680575637801 -0.494387769900
8.900000000000000 0.7657367039469 -0.515283987793 -0.219129819036 -0.316272786941 -0.219129819036 -0.316272786941 0.7514086861454 -0.535967492285
8.950000000000001 0.7471144288539 -0.556207635060 -0.220924783093 -0.289073904544 -0.220924783093 -0.289073904544 0.7328113102731 -0.574926242859
9.000000000000000 0.7267929900324 -0.594390903206 -0.220929212586 -0.263783296667 -0.220929212586 -0.263783296667 0.7126371413973 -0.611295636475
9.050000000000001 0.7051243740240 -0.629905925815 -0.219465466848 -0.240363125035 -0.219465466848 -0.240363125035 0.6912141601251 -0.645143398432
9.100000000000001 0.6824151194068 -0.662852362189 -0.216814190020 -0.218748086111 -0.216814190020 -0.218748086111 0.6688281750517 -0.676562897321
9.150000000000000 0.6589293343775 -0.693348242409 -0.213217037607 -0.198854193363 -0.213217037607 -0.198854193363 0.6457255945072 -0.705664642994
9.200000000000001 0.6348924374896 -0.721522728955 -0.208880112746 -0.180585727108 -0.208880112746 -0.180585727108 0.6221168757747 -0.732569558970
9.250000000000000 0.6104952009870 -0.747510534249 -0.203977706611 -0.163840600459 -0.203977706611 -0.163840600459 0.5981802608931 -0.757403789300
9.300000000000001 0.5858978087339 -0.771447723015 -0.198656064916 -0.148514400404 -0.198656064916 -0.148514400404 0.5740655309939 -0.780294789678
9.350000000000001 0.5612337431851 -0.793468642871 -0.193037001067 -0.134503349476 -0.193037001067 -0.134503349476 0.5498976061459 -0.801368465620
9.400000000000000 0.5366133916438 -0.813703754077 -0.187221249473 -0.121706407192 -0.187221249473 -0.121706407192 0.5257798880554 -0.820747145759
9.450000000000001 0.5121273159232 -0.832278162092 -0.181291504461 -0.110026699266 -0.181291504461 -0.110026699266 0.5017972930446 -0.838548208391
9.500000000000000 0.4878491662608 -0.849310689496 -0.175315125610 -0.099372431015 -0.175315125610 -0.099372431015 0.4780189569115 -0.854883209813
9.550000000000001 0.4638382441979 -0.864913354426 -0.169346513358 -0.089657412155 -0.169346513358 -0.089657412155 0.4545006155227 -0.869857391200
9.600000000000001 0.4401417336774 -0.879191149505 -0.163429172798 -0.080801294426 -0.163429172798 -0.080801294426 0.4312866785781 -0.883569465643
9.650000000000000 0.4167966276149 -0.892242038050 -0.157597491310 -0.072729601658 -0.157597491310 -0.072729601658 0.4084120215115 -0.896111608018
9.700000000000001 0.3938314558473 -0.904157068766 -0.151878302375 -0.065373663319 -0.151878302375 -0.065373663319 0.3859036150533 -0.907569540645
9.750000000000000 0.3712676355646 -0.915020677919 -0.146292146322 -0.058670342504 -0.146292146322 -0.058670342504 0.3637817657915 -0.918022827115
9.800000000000001 0.3491205850809 -0.924911037270 -0.140854314827 -0.052561710523 -0.140854314827 -0.052561710523 0.3420611303179 -0.927545206535
9.850000000000001 0.3274008059355 -0.933900370956 -0.135575811674 -0.046994784279 -0.135575811674 -0.046994784279 0.3207517436535 -0.936204868007
9.900000000000000 0.3061147402382 -0.942055332368 -0.130464128801 -0.041921192506 -0.130464128801 -0.041921192506 0.2998598195303 -0.944064798229
9.950000000000001 0.2852654929165 -0.949437385610 -0.125523896600 -0.037296837457 -0.125523896600 -0.037296837457 0.2793884251517 -0.951183133922
10.00000000000000 0.2648534388678 -0.956103181388 -0.120757427382 -0.033081561619 -0.120757427382 -0.033081561619 0.2593380489419 -0.957613509584
10.05000000000000 0.2448767324063 -0.962104920454 -0.116165168430 -0.029238825980 -0.116165168430 -0.029238825980 0.2397070773941 -0.963405394135
10.10000000000000 0.2253317339964 -0.967490700151 -0.111746078786 -0.025735404005 -0.111746078786 -0.025735404005 0.2204921949158 -0.968604412223
10.15000000000000 0.2062133671187 -0.972304841388 -0.107497941855 -0.022541093839 -0.107497941855 -0.022541093839 0.2016887185881 -0.973252647679
10.20000000000000 0.1875154162271 -0.976588194678 -0.103417624149 -0.019628449960 -0.103417624149 -0.019628449960 0.1832908780055 -0.977388927771
10.25000000000000 0.1692307751031 -0.980378424789 -0.099501288868 -0.016972534679 -0.099501288868 -0.016972534679 0.1652920488419 -0.981049087823
10.30000000000000 0.1513516534936 -0.983710274224 -0.095744571716 -0.014550689246 -0.095744571716 -0.014550689246 0.1476849474659 -0.984266216337
10.35000000000000 0.1338697486961 -0.986615806178 -0.092142725166 -0.012342323900 -0.092142725166 -0.012342323900 0.1304617928022 -0.987070881196
10.40000000000000 0.1167763877134 -0.989124627882 -0.088690736394 -0.010328725970 -0.088690736394 -0.010328725970 0.1136144406675 -0.989491337772
10.45000000000000 0.1000626447152 -0.991264095478 -0.085383423278 -8.492884933e-3 -0.085383423278 -8.492884933e-3 0.0971344949899 -0.991553719954
10.50000000000000 0.0837194377938 -0.993059501584 -0.082215512151 -6.819333284e-3 -0.082215512151 -6.819333284e-3 0.0810133996239 -0.993282215186
10.55000000000000 0.0677376083666 -0.994534246805 -0.079181700379 -5.294002038e-3 -0.079181700379 -5.294002038e-3 0.0652425138879 -0.994699224624
10.60000000000000 0.0521079860462 -0.995709996397 -0.076276706358 -3.904089688e-3 -0.076276706358 -3.904089688e-3 0.0498131744498 -0.995825509557
10.65000000000000 0.0368214413450 -0.996606823286 -0.073495309077 -2.637943499e-3 -0.073495309077 -2.637943499e-3 0.0347167457747 -0.996680325161
10.70000000000000 0.0218689282063 -0.997243338551 -0.070832379062 -1.484952052e-3 -0.070832379062 -1.484952052e-3 0.0199446609899 -0.997281542639
10.75000000000000 0.0072415180327 -0.997636810472 -0.068282902200 -4.354480352e-4 -0.068282902200 -4.354480352e-4 0.0054884547324 -0.997645760726
10.80000000000000 -7.069573382e-3 -0.997803273115 -0.065841997703 5.1937967162e-4 -0.065841997703 5.1937967162e-4 -8.660210709e-3 -0.997788407489
10.85000000000000 -0.021072964842 -0.997757625396 -0.063504931257 0.0013875654729 -0.063504931257 0.0013875654729 -0.022509524851 -0.997723833266
10.90000000000000 -0.034777093660 -0.997513721469 -0.061267124239 0.0021764389093 -0.061267124239 0.0021764389093 -0.036067513148 -0.997465395535
10.95000000000000 -0.048190203671 -0.997084453239 -0.059124159719 0.0028926896108 -0.059124159719 0.0028926896108 -0.049342025011 -0.997025536455
11.00000000000000 -0.061320336631 -0.996481825700 -0.057071785863 0.0035424260183 -0.057071785863 0.0035424260183 -0.062340725066 -0.996415853713
11.05000000000000 -0.074175326435 -0.995717025762 -0.055105917232 0.0041312284822 -0.055105917232 0.0041312284822 -0.075071087090 -0.995647165315
11.10000000000000 -0.086762795645 -0.994800485164 -0.053222634405 0.0046641972866 -0.053222634405 0.0046641972866 -0.087540390171 -0.994729568850